EMC_density.97.data - created by mBuild; units = real

1470 atoms
1372 bonds
2254 angles
1862 dihedrals
0 impropers

8 atom types
8 bond types
12 angle types
9 dihedral types

0.000000 26.000000 xlo xhi
0.000000 26.000000 ylo yhi
0.000000 26.000000 zlo zhi

Masses

1	12.010780	# opls_135
2	1.007947	# opls_140
3	12.010780	# opls_465
4	15.999430	# opls_466
5	15.999430	# opls_467
6	12.010780	# opls_468
7	1.007947	# opls_469
8	12.010780	# opls_490

Pair Coeffs # lj
#	epsilon (kcal/mol)		sigma (Angstrom)
1	0.06600		3.50000		# opls_135
2	0.03000		2.50000		# opls_140
3	0.10500		3.75000		# opls_465
4	0.21000		2.96000		# opls_466
5	0.17000		3.00000		# opls_467
6	0.06600		3.50000		# opls_468
7	0.01500		2.42000		# opls_469
8	0.06600		3.50000		# opls_490

Bond Coeffs # harmonic
#	k(kcal/mol/angstrom^2)		req(angstrom)
1	340.0		1.09		# opls_135	opls_140
2	268.0		1.529		# opls_135	opls_490
3	570.0		1.229		# opls_465	opls_466
4	214.0		1.327		# opls_465	opls_467
5	320.0		1.41		# opls_467	opls_468
6	320.0		1.41		# opls_467	opls_490
7	340.0		1.09		# opls_468	opls_469
8	340.0		1.09		# opls_469	opls_490

Angle Coeffs # harmonic
#	k(kcal/mol/rad^2)		theteq(deg)
1	33.0		107.80000	# opls_140	opls_135	opls_140
2	37.5		110.70000	# opls_140	opls_135	opls_490
3	83.0		123.40000	# opls_466	opls_465	opls_467
4	69.9		118.18000	# opls_467	opls_465	opls_467
5	83.0		116.90000	# opls_465	opls_467	opls_468
6	83.0		116.90000	# opls_465	opls_467	opls_490
7	35.0		109.50000	# opls_467	opls_468	opls_469
8	33.0		107.80000	# opls_469	opls_468	opls_469
9	50.0		109.50000	# opls_135	opls_490	opls_467
10	37.5		110.70000	# opls_135	opls_490	opls_469
11	35.0		109.50000	# opls_467	opls_490	opls_469
12	33.0		107.80000	# opls_469	opls_490	opls_469

Dihedral Coeffs # opls
#	f1(kcal/mol)	f2(kcal/mol)	f3(kcal/mol)	f4(kcal/mol)
1	0.00000	-0.00000		0.46800		-0.00000	# opls_140	opls_135	opls_490	opls_467
2	-0.00000	-0.00000		0.30000		-0.00000	# opls_140	opls_135	opls_490	opls_469
3	-0.00000	5.12400		-0.00000		-0.00000	# opls_466	opls_465	opls_467	opls_468
4	-0.00000	5.12400		-0.00000		-0.00000	# opls_466	opls_465	opls_467	opls_490
5	4.66900	5.12400		-0.00000		-0.00000	# opls_467	opls_465	opls_467	opls_468
6	4.66900	5.12400		-0.00000		-0.00000	# opls_467	opls_465	opls_467	opls_490
7	0.00000	-0.00000		0.19800		-0.00000	# opls_465	opls_467	opls_468	opls_469
8	-1.22000	-0.12600		0.42200		-0.00000	# opls_465	opls_467	opls_490	opls_135
9	0.00000	-0.00000		0.19800		-0.00000	# opls_465	opls_467	opls_490	opls_469

Atoms # full

1	1	1	-0.180000	7.774716	3.381443	23.186463
2	1	8	0.190000	8.897254	2.645778	22.472256
3	1	5	-0.330000	9.810041	3.588408	21.919050
4	1	3	0.510000	10.946291	3.205502	21.202585
5	1	4	-0.430000	11.206179	1.983726	21.018432
6	1	5	-0.330000	11.790635	4.194635	20.692955
7	1	6	0.160000	12.967103	3.891465	19.952801
8	1	2	0.060000	7.061453	2.648410	23.618810
9	1	2	0.060000	8.191000	4.006021	24.005059
10	1	2	0.060000	7.232071	4.033473	22.469609
11	1	7	0.030000	9.427092	1.991205	23.198002
12	1	7	0.030000	8.467322	2.018681	21.661203
13	1	7	0.030000	13.466265	4.837227	19.657972
14	1	7	0.030000	12.703662	3.322627	19.035963
15	1	7	0.030000	13.665988	3.295074	20.576855
16	2	1	-0.180000	3.076776	16.320092	10.275391
17	2	8	0.190000	3.722030	17.696036	10.232818
18	2	5	-0.330000	5.107667	17.564767	9.931908
19	2	3	0.510000	5.962932	18.664028	9.826298
20	2	4	-0.430000	5.524813	19.835653	9.998159
21	2	5	-0.330000	7.310147	18.447529	9.527698
22	2	6	0.160000	8.247809	19.510009	9.402225
23	2	2	0.060000	1.996004	16.419786	10.509912
24	2	2	0.060000	3.187723	15.818371	9.290781
25	2	2	0.060000	3.560234	15.698375	11.058475
26	2	7	0.030000	3.224545	18.310679	9.451394
27	2	7	0.030000	3.597384	18.190577	11.220639
28	2	7	0.030000	9.245973	19.089129	9.163306
29	2	7	0.030000	8.314065	20.073592	10.356977
30	2	7	0.030000	7.940230	20.194017	8.583020
31	3	1	-0.180000	10.599133	8.116918	13.405763
32	3	8	0.190000	10.594429	9.466525	12.705817
33	3	5	-0.330000	9.258792	9.822542	12.363628
34	3	3	0.510000	8.941358	11.014572	11.708415
35	3	4	-0.430000	9.849089	11.832965	11.391480
36	3	5	-0.330000	7.604583	11.287510	11.409146
37	3	6	0.160000	7.195278	12.476843	10.744487
38	3	2	0.060000	11.639749	7.837013	13.673679
39	3	2	0.060000	9.989095	8.167987	14.332443
40	3	2	0.060000	10.177851	7.339503	12.733727
41	3	7	0.030000	11.025366	10.233789	13.385155
42	3	7	0.030000	11.214287	9.404578	11.785036
43	3	7	0.030000	6.092968	12.464495	10.620743
44	3	7	0.030000	7.669326	12.534579	9.741734
45	3	7	0.030000	7.479906	13.366000	11.346114
46	4	1	-0.180000	23.508332	5.023464	3.128109
47	4	8	0.190000	22.024078	5.241109	2.881118
48	4	5	-0.330000	21.433871	5.850839	4.024644
49	4	3	0.510000	20.076270	6.172739	4.090257
50	4	4	-0.430000	19.311798	5.927819	3.115686
51	4	5	-0.330000	19.577220	6.769663	5.250280
52	4	6	0.160000	18.208908	7.129160	5.399609
53	4	2	0.060000	23.970950	4.548011	2.237640
54	4	2	0.060000	24.008092	5.996924	3.318122
55	4	2	0.060000	23.653462	4.360790	4.007476
56	4	7	0.030000	21.892112	5.898791	1.994585
57	4	7	0.030000	21.537171	4.261221	2.684545
58	4	7	0.030000	18.058367	7.583443	6.400367
59	4	7	0.030000	17.567006	6.226851	5.313770
60	4	7	0.030000	17.922891	7.868781	4.621969
61	5	1	-0.180000	10.944406	20.835459	18.682410
62	5	8	0.190000	11.745236	19.940238	17.750404
63	5	5	-0.330000	11.889983	18.649851	18.334970
64	5	3	0.510000	12.581698	17.611648	17.706742
65	5	4	-0.430000	13.112702	17.788194	16.574904
66	5	5	-0.330000	12.677074	16.375241	18.349569
67	5	6	0.160000	13.362607	15.266239	17.780383
68	5	2	0.060000	10.830131	21.842489	18.228716
69	5	2	0.060000	9.937049	20.400295	18.853739
70	5	2	0.060000	11.469234	20.935632	19.656067
71	5	7	0.030000	11.213979	19.854469	16.777619
72	5	7	0.030000	12.747508	20.390275	17.580651
73	5	7	0.030000	13.300335	14.403521	18.474927
74	5	7	0.030000	14.431338	15.521805	17.618923
75	5	7	0.030000	12.893724	14.984574	16.813748
76	6	1	-0.180000	15.611015	20.618009	11.688728
77	6	8	0.190000	14.822062	21.219497	10.536708
78	6	5	-0.330000	13.450046	21.327564	10.902306
79	6	3	0.510000	12.479957	21.846942	10.041970
80	6	4	-0.430000	12.795776	22.246210	8.886533
81	6	5	-0.330000	11.155264	21.917929	10.479201
82	6	6	0.160000	10.106613	22.432623	9.667267
83	6	2	0.060000	16.681444	20.532686	11.406047
84	6	2	0.060000	15.525308	21.266143	12.586540
85	6	2	0.060000	15.219576	19.606956	11.929630
86	6	7	0.030000	15.228243	22.226961	10.300204
87	6	7	0.030000	14.922243	20.566317	9.642717
88	6	7	0.030000	9.152332	22.385319	10.230882
89	6	7	0.030000	10.008744	21.825540	8.742367
90	6	7	0.030000	10.315562	23.490607	9.401602
91	7	1	-0.180000	14.412546	16.072085	6.258010
92	7	8	0.190000	12.987770	15.568710	6.090639
93	7	5	-0.330000	12.908680	14.731957	4.941136
94	7	3	0.510000	11.719926	14.122083	4.533800
95	7	4	-0.430000	10.653445	14.297224	5.186591
96	7	5	-0.330000	11.728861	13.315563	3.393419
97	7	6	0.160000	10.563389	12.658222	2.910309
98	7	2	0.060000	14.476836	16.724951	7.153912
99	7	2	0.060000	15.105577	15.213758	6.386349
100	7	2	0.060000	14.716236	16.655910	5.363355
101	7	7	0.030000	12.693194	14.993291	6.995083
102	7	7	0.030000	12.303512	16.436709	5.971191
103	7	7	0.030000	10.821579	12.081275	1.998705
104	7	7	0.030000	9.783485	13.406260	2.653875
105	7	7	0.030000	10.174204	11.958999	3.680497
106	8	1	-0.180000	3.478191	22.654770	15.212341
107	8	8	0.190000	4.790187	23.376216	14.948583
108	8	5	-0.330000	5.829223	22.422155	14.753808
109	8	3	0.510000	7.150719	22.790700	14.491454
110	8	4	-0.430000	7.473447	24.009095	14.416949
111	8	5	-0.330000	8.109731	21.791002	14.312781
112	8	6	0.160000	9.476315	22.079310	14.042331
113	8	2	0.060000	2.666209	23.396736	15.364586
114	8	2	0.060000	3.219508	22.009102	14.346498
115	8	2	0.060000	3.567640	22.025533	16.123135
116	8	7	0.030000	4.685326	24.008145	14.039973
117	8	7	0.030000	5.033763	24.024590	15.818170
118	8	7	0.030000	10.036752	21.127333	13.941316
119	8	7	0.030000	9.913408	22.667372	14.877017
120	8	7	0.030000	9.564041	22.650887	13.094085
121	9	1	-0.180000	14.368821	13.289975	22.548033
122	9	8	0.190000	13.071237	12.848569	23.205927
123	9	5	-0.330000	12.221594	12.249991	22.232491
124	9	3	0.510000	10.956400	11.746931	22.544291
125	9	4	-0.430000	10.515765	11.808276	23.725929
126	9	5	-0.330000	10.186093	11.175008	21.529129
127	9	6	0.160000	8.888560	10.639630	21.760639
128	9	2	0.060000	15.033218	13.757160	23.305213
129	9	2	0.060000	14.886968	12.413222	22.104957
130	9	2	0.060000	14.155942	14.030739	21.748385
131	9	7	0.030000	13.298235	12.114039	24.008944
132	9	7	0.030000	12.566567	13.732976	23.652058
133	9	7	0.030000	8.481310	10.245369	20.807089
134	9	7	0.030000	8.211409	11.434066	22.139989
135	9	7	0.030000	8.945026	9.810818	22.497829
136	10	1	-0.180000	15.221414	3.508682	10.539564
137	10	8	0.190000	16.505341	2.782816	10.170733
138	10	5	-0.330000	17.585339	3.710264	10.135911
139	10	3	0.510000	18.893397	3.331842	9.824809
140	10	4	-0.430000	19.166100	2.128133	9.558519
141	10	5	-0.330000	19.895152	4.305170	9.812759
142	10	6	0.160000	21.251686	4.005241	9.506698
143	10	2	0.060000	14.377571	2.787459	10.567386
144	10	2	0.060000	15.326139	3.980503	11.539517
145	10	2	0.060000	15.000034	4.294427	9.786516
146	10	7	0.030000	16.711471	1.994454	10.926971
147	10	7	0.030000	16.385081	2.308654	9.172431
148	10	7	0.030000	21.852336	4.936235	9.561685
149	10	7	0.030000	21.326810	3.588658	8.479867
150	10	7	0.030000	21.654068	3.273617	10.239079
151	11	1	-0.180000	11.706000	6.372615	2.767442
152	11	8	0.190000	11.453284	5.159748	3.648620
153	11	5	-0.330000	12.479006	5.061267	4.631454
154	11	3	0.510000	12.512260	4.042003	5.585917
155	11	4	-0.430000	11.613577	3.155401	5.608198
156	11	5	-0.330000	13.554707	4.018421	6.515310
157	11	6	0.160000	13.663681	3.016832	7.519680
158	11	2	0.060000	10.907323	6.451617	2.000056
159	11	2	0.060000	11.706592	7.296214	3.384251
160	11	2	0.060000	12.687767	6.273356	2.257768
161	11	7	0.030000	10.465113	5.267297	4.146468
162	11	7	0.030000	11.447149	4.243541	3.018996
163	11	7	0.030000	14.568420	3.210885	8.131516
164	11	7	0.030000	13.755465	2.014882	7.049319
165	11	7	0.030000	12.770810	3.041363	8.179792
166	12	1	-0.180000	19.034994	4.923869	12.304130
167	12	8	0.190000	19.392206	6.401281	12.271897
168	12	5	-0.330000	20.620007	6.611067	12.962014
169	12	3	0.510000	21.201642	7.873736	13.097562
170	12	4	-0.430000	20.644709	8.892424	12.601283
171	12	5	-0.330000	22.408667	7.992382	13.790410
172	12	6	0.160000	23.067641	9.239707	13.974124
173	12	2	0.060000	18.077734	4.757653	11.766514
174	12	2	0.060000	19.833559	4.329609	11.811547
175	12	2	0.060000	18.922442	4.583582	13.355331
176	12	7	0.030000	19.494135	6.731254	11.215190
177	12	7	0.030000	18.582218	6.985450	12.760329
178	12	7	0.030000	24.000823	9.077533	14.551551
179	12	7	0.030000	22.412130	9.936801	14.537981
180	12	7	0.030000	23.326473	9.681929	12.988724
181	13	1	-0.180000	20.090717	14.093323	15.675153
182	13	8	0.190000	19.856900	12.770908	14.962459
183	13	5	-0.330000	20.194552	11.694011	15.830821
184	13	3	0.510000	20.081788	10.355070	15.449345
185	13	4	-0.430000	19.667504	10.049983	14.296313
186	13	5	-0.330000	20.434260	9.358800	16.362709
187	13	6	0.160000	20.349457	7.972373	16.055394
188	13	2	0.060000	19.828087	14.934822	14.999940
189	13	2	0.060000	19.457963	14.150451	16.586112
190	13	2	0.060000	21.158699	14.183834	15.966202
191	13	7	0.030000	18.787090	12.695979	14.669555
192	13	7	0.030000	20.489319	12.729390	14.049101
193	13	7	0.030000	20.681484	7.383025	16.934587
194	13	7	0.030000	21.006803	7.733083	15.192720
195	13	7	0.030000	19.300039	7.699583	15.814823
196	14	1	-0.180000	12.282728	15.908120	20.938488
197	14	8	0.190000	10.899384	16.217860	20.389120
198	14	5	-0.330000	11.017463	17.045648	19.236475
199	14	3	0.510000	9.909028	17.494385	18.514664
200	14	4	-0.430000	8.740582	17.173090	18.869198
201	14	5	-0.330000	10.112781	18.303903	17.394758
202	14	6	0.160000	9.040368	18.803389	16.604658
203	14	2	0.060000	12.193324	15.262602	21.837554
204	14	2	0.060000	12.885469	15.377255	20.171432
205	14	2	0.060000	12.798704	16.850326	21.220449
206	14	7	0.030000	10.390713	15.267169	20.118304
207	14	7	0.030000	10.303872	16.741534	21.168242
208	14	7	0.030000	9.452033	19.416895	15.777194
209	14	7	0.030000	8.373648	19.438180	17.226023
210	14	7	0.030000	8.460719	17.959886	16.173292
211	15	1	-0.180000	11.796760	5.872829	22.566560
212	15	8	0.190000	13.179246	5.460170	23.045969
213	15	5	-0.330000	13.786660	4.610564	22.077988
214	15	3	0.510000	15.064715	4.072177	22.244478
215	15	4	-0.430000	15.737412	4.327424	23.282032
216	15	5	-0.330000	15.587285	3.247182	21.245815
217	15	6	0.160000	16.879290	2.658618	21.335987
218	15	2	0.060000	11.320928	6.535539	23.319824
219	15	2	0.060000	11.876856	6.420157	21.603489
220	15	2	0.060000	11.160679	4.973679	22.423671
221	15	7	0.030000	13.803106	6.368555	23.192718
222	15	7	0.030000	13.086301	4.920807	24.013620
223	15	7	0.030000	17.067156	2.050458	20.427471
224	15	7	0.030000	16.935612	1.999545	22.228186
225	15	7	0.030000	17.654327	3.451151	21.405102
226	16	1	-0.180000	2.862813	18.366094	3.385362
227	16	8	0.190000	4.312130	18.050037	3.052237
228	16	5	-0.330000	4.558122	16.662700	3.258518
229	16	3	0.510000	5.806216	16.077410	3.033350
230	16	4	-0.430000	6.778104	16.775572	2.630616
231	16	5	-0.330000	5.962843	14.708134	3.260451
232	16	6	0.160000	7.198652	14.033692	3.056200
233	16	2	0.060000	2.668442	19.447574	3.225271
234	16	2	0.060000	2.185923	17.776934	2.730992
235	16	2	0.060000	2.654068	18.115079	4.446919
236	16	7	0.030000	4.510369	18.312845	1.990383
237	16	7	0.030000	4.978924	18.651287	3.707816
238	16	7	0.030000	7.072767	12.959371	3.302251
239	16	7	0.030000	7.980903	14.464786	3.716359
240	16	7	0.030000	7.511101	14.125446	1.994350
241	17	1	-0.180000	23.356814	20.567653	17.782619
242	17	8	0.190000	22.466945	21.075487	18.905840
243	17	5	-0.330000	23.275009	21.558550	19.974227
244	17	3	0.510000	22.733860	22.089048	21.147571
245	17	4	-0.430000	21.482646	22.158769	21.301817
246	17	5	-0.330000	23.597818	22.541225	22.147639
247	17	6	0.160000	23.130251	23.094747	23.371898
248	17	2	0.060000	22.728912	20.190343	16.948124
249	17	2	0.060000	24.000230	21.391092	17.406517
250	17	2	0.060000	24.000253	19.741378	18.152406
251	17	7	0.030000	21.822859	21.895992	18.521361
252	17	7	0.030000	21.822881	20.244830	19.267906
253	17	7	0.030000	23.999861	23.378496	23.999446
254	17	7	0.030000	22.520361	22.345443	23.919754
255	17	7	0.030000	22.520334	24.001002	23.171220
256	18	1	-0.180000	17.389283	21.278536	8.531169
257	18	8	0.190000	16.634749	22.416268	7.862117
258	18	5	-0.330000	15.313580	21.991088	7.543525
259	18	3	0.510000	14.383699	22.825700	6.919227
260	18	4	-0.430000	14.691888	24.010558	6.610485
261	18	5	-0.330000	13.107776	22.329707	6.641671
262	18	6	0.160000	12.102139	23.112105	6.008928
263	18	2	0.060000	18.420033	21.607666	8.780641
264	18	2	0.060000	16.870475	20.977050	9.465745
265	18	2	0.060000	17.444780	20.405759	7.846577
266	18	7	0.030000	16.593037	23.285705	8.553666
267	18	7	0.030000	17.167845	22.713913	6.933076
268	18	7	0.030000	11.182045	22.502515	5.897662
269	18	7	0.030000	12.445997	23.431650	5.002339
270	18	7	0.030000	11.869660	24.004968	6.627245
271	19	1	-0.180000	12.916204	13.336890	15.087481
272	19	8	0.190000	14.411903	13.439325	15.340024
273	19	5	-0.330000	15.074292	13.820188	14.138379
274	19	3	0.510000	16.458238	13.993734	14.063682
275	19	4	-0.430000	17.182453	13.814388	15.082278
276	19	5	-0.330000	17.028840	14.368671	12.845133
277	19	6	0.160000	18.428237	14.566378	12.682606
278	19	2	0.060000	12.397328	13.039964	16.023221
279	19	2	0.060000	12.520145	14.318405	14.750949
280	19	2	0.060000	12.714801	12.574394	14.305482
281	19	7	0.030000	14.599621	14.199217	16.129472
282	19	7	0.030000	14.794447	12.453675	15.683614
283	19	7	0.030000	18.635809	14.857754	11.632575
284	19	7	0.030000	18.974136	13.626189	12.909780
285	19	7	0.030000	18.778791	15.376379	13.356830
286	20	1	-0.180000	10.336052	11.340920	18.200774
287	20	8	0.190000	10.806885	12.164390	19.388882
288	20	5	-0.330000	9.684825	12.556315	20.173192
289	20	3	0.510000	9.808097	13.324656	21.333132
290	20	4	-0.430000	10.944050	13.704790	21.732256
291	20	5	-0.330000	8.655720	13.666076	22.044809
292	20	6	0.160000	8.692240	14.444797	23.234799
293	20	2	0.060000	11.209377	11.034023	17.587484
294	20	2	0.060000	9.806555	10.431367	18.555508
295	20	2	0.060000	9.646581	11.942639	17.571450
296	20	7	0.030000	11.501819	11.554320	20.005959
297	20	7	0.030000	11.341703	13.066919	19.021037
298	20	7	0.030000	7.658387	14.581580	23.612938
299	20	7	0.030000	9.132962	15.442109	23.023371
300	20	7	0.030000	9.293507	13.925481	24.010915
301	21	1	-0.180000	3.097185	12.104436	6.393432
302	21	8	0.190000	3.464174	10.638272	6.228907
303	21	5	-0.330000	2.880259	10.130914	5.033332
304	21	3	0.510000	3.044583	8.807623	4.617518
305	21	4	-0.430000	3.731645	8.000842	5.303989
306	21	5	-0.330000	2.437349	8.390392	3.430838
307	21	6	0.160000	2.554071	7.061728	2.936020
308	21	2	0.060000	3.551431	12.502471	7.325224
309	21	2	0.060000	3.475729	12.689650	5.528725
310	21	2	0.060000	1.993726	12.214866	6.454012
311	21	7	0.030000	4.570374	10.540350	6.177579
312	21	7	0.030000	3.087071	10.065149	7.103677
313	21	7	0.030000	1.988364	6.975523	1.985706
314	21	7	0.030000	2.133538	6.343590	3.671546
315	21	7	0.030000	3.620795	6.820057	2.742985
316	22	1	-0.180000	14.761470	19.935487	5.760539
317	22	8	0.190000	15.176396	21.026841	4.786799
318	22	5	-0.330000	16.597183	21.083480	4.709831
319	22	3	0.510000	17.271528	21.993120	3.892018
320	22	4	-0.430000	16.628291	22.812717	3.178788
321	22	5	-0.330000	18.668175	21.982328	3.875184
322	22	6	0.160000	19.431982	22.873863	3.071703
323	22	2	0.060000	13.653744	19.889313	5.822330
324	22	2	0.060000	15.145003	18.952324	5.414442
325	22	2	0.060000	15.170612	20.152123	6.770072
326	22	7	0.030000	14.754477	20.802856	3.782948
327	22	7	0.030000	14.780109	22.003707	5.139768
328	22	7	0.030000	20.511485	22.672835	3.229227
329	22	7	0.030000	19.215989	23.924765	3.358967
330	22	7	0.030000	19.190285	22.720716	1.998532
331	23	1	-0.180000	9.324682	18.349874	6.636194
332	23	8	0.190000	8.822301	16.948279	6.943656
333	23	5	-0.330000	9.913256	16.033441	6.918038
334	23	3	0.510000	9.756771	14.667516	7.164544
335	23	4	-0.430000	8.617234	14.189575	7.423813
336	23	5	-0.330000	10.879961	13.838376	7.119886
337	23	6	0.160000	10.808722	12.437719	7.358431
338	23	2	0.060000	8.475650	19.065260	6.655578
339	23	2	0.060000	10.074615	18.659041	7.394814
340	23	2	0.060000	9.793043	18.372699	5.629416
341	23	7	0.030000	8.349083	16.940463	7.949591
342	23	7	0.030000	8.067264	16.653869	6.182643
343	23	7	0.030000	11.824044	12.000229	7.267454
344	23	7	0.030000	10.141883	11.957991	6.610932
345	23	7	0.030000	10.424448	12.245349	8.382587
346	24	1	-0.180000	12.465593	21.423770	2.808758
347	24	8	0.190000	12.452552	19.910029	2.949482
348	24	5	-0.330000	11.133642	19.470225	3.257404
349	24	3	0.510000	10.813287	18.123718	3.445275
350	24	4	-0.430000	11.703049	17.233424	3.345818
351	24	5	-0.330000	9.493773	17.777055	3.744823
352	24	6	0.160000	9.082868	16.430786	3.951056
353	24	2	0.060000	13.493192	21.769263	2.568589
354	24	2	0.060000	11.780087	21.734827	1.992171
355	24	2	0.060000	12.138927	21.896026	3.759415
356	24	7	0.030000	12.788725	19.449790	1.994983
357	24	7	0.030000	13.147879	19.611131	3.763779
358	24	7	0.030000	7.996268	16.411189	4.173476
359	24	7	0.030000	9.633931	15.992206	4.809861
360	24	7	0.030000	9.273824	15.830434	3.036353
361	25	1	-0.180000	17.435365	16.687749	5.254614
362	25	8	0.190000	18.446306	15.572911	5.470301
363	25	5	-0.330000	19.397897	15.974043	6.450777
364	25	3	0.510000	20.451603	15.152590	6.858111
365	25	4	-0.430000	20.597254	14.002146	6.358655
366	25	5	-0.330000	21.341694	15.623093	7.826300
367	25	6	0.160000	22.440537	14.851736	8.296797
368	25	2	0.060000	16.692077	16.377312	4.490311
369	25	2	0.060000	16.905073	16.908206	6.205233
370	25	2	0.060000	17.952227	17.605923	4.903479
371	25	7	0.030000	17.916128	14.658062	5.813612
372	25	7	0.030000	18.964203	15.356392	4.510716
373	25	7	0.030000	22.997095	15.436261	9.057800
374	25	7	0.030000	23.125063	14.612250	7.455583
375	25	7	0.030000	22.074195	13.912057	8.761947
376	26	1	-0.180000	20.592882	14.994653	2.879917
377	26	8	0.190000	21.116635	13.648012	3.352808
378	26	5	-0.330000	20.407584	13.242525	4.519254
379	26	3	0.510000	20.671285	12.041316	5.181496
380	26	4	-0.430000	21.567020	11.259014	4.757406
381	26	5	-0.330000	19.929085	11.718672	6.319944
382	26	6	0.160000	20.133403	10.516695	7.052966
383	26	2	0.060000	21.144327	15.313095	1.970241
384	26	2	0.060000	19.511641	14.917562	2.638120
385	26	2	0.060000	20.735844	15.757559	3.674285
386	26	7	0.030000	20.975213	12.895594	2.546727
387	26	7	0.030000	22.200490	13.736328	3.583802
388	26	7	0.030000	19.428720	10.487502	7.909192
389	26	7	0.030000	21.173297	10.480124	7.441360
390	26	7	0.030000	19.944760	9.637149	6.401520
391	27	1	-0.180000	6.648779	5.573103	8.454103
392	27	8	0.190000	7.292977	5.064844	7.174233
393	27	5	-0.330000	7.129872	6.031046	6.140977
394	27	3	0.510000	7.620666	5.840444	4.847224
395	27	4	-0.430000	8.238567	4.781415	4.545815
396	27	5	-0.330000	7.417549	6.839111	3.892011
397	27	6	0.160000	7.884126	6.725285	2.552920
398	27	2	0.060000	6.774648	4.821279	9.261521
399	27	2	0.060000	7.128400	6.524209	8.768507
400	27	2	0.060000	5.564426	5.748003	8.289555
401	27	7	0.030000	8.375419	4.886247	7.354020
402	27	7	0.030000	6.810072	4.109360	6.874647
403	27	7	0.030000	7.603107	7.638883	1.989964
404	27	7	0.030000	7.420441	5.843366	2.062224
405	27	7	0.030000	8.989958	6.622318	2.542875
406	28	1	-0.180000	14.222788	11.630863	12.414195
407	28	8	0.190000	13.796153	10.215459	12.769159
408	28	5	-0.330000	14.949360	9.398517	12.943761
409	28	3	0.510000	14.869701	8.044233	13.276287
410	28	4	-0.430000	13.747250	7.488628	13.436283
411	28	5	-0.330000	16.050526	7.313948	13.429126
412	28	6	0.160000	16.058872	5.931952	13.766520
413	28	2	0.060000	13.325113	12.270002	12.277496
414	28	2	0.060000	14.846948	12.054668	13.229242
415	28	2	0.060000	14.808908	11.625152	11.470841
416	28	7	0.030000	13.204172	10.235610	13.709931
417	28	7	0.030000	13.166098	9.805717	11.949987
418	28	7	0.030000	17.108422	5.578471	13.830160
419	28	7	0.030000	15.528733	5.346548	12.985609
420	28	7	0.030000	15.566904	5.777587	14.750241
421	29	1	-0.180000	21.284414	10.702897	18.676558
422	29	8	0.190000	22.419405	10.946010	17.694683
423	29	5	-0.330000	21.993139	11.858799	16.688263
424	29	3	0.510000	22.825243	12.272767	15.645557
425	29	4	-0.430000	24.008687	11.841068	15.560179
426	29	5	-0.330000	22.328333	13.171499	14.698781
427	29	6	0.160000	23.108204	13.643416	13.606576
428	29	2	0.060000	21.614395	9.991280	19.462509
429	29	2	0.060000	20.987089	11.659025	19.157085
430	29	2	0.060000	20.408671	10.273447	18.145398
431	29	7	0.030000	23.291835	11.368006	18.239370
432	29	7	0.030000	22.712909	9.981211	17.226795
433	29	7	0.030000	22.498339	14.342275	12.998125
434	29	7	0.030000	23.423315	12.791154	12.967888
435	29	7	0.030000	24.003785	14.181640	13.983162
436	30	1	-0.180000	15.677688	17.816300	18.796835
437	30	8	0.190000	15.451038	17.101757	20.119500
438	30	5	-0.330000	16.453972	16.107753	20.303475
439	30	3	0.510000	16.503282	15.287524	21.432987
440	30	4	-0.430000	15.640646	15.403905	22.347594
441	30	5	-0.330000	17.521306	14.336646	21.535365
442	30	6	0.160000	17.644244	13.462384	22.650877
443	30	2	0.060000	14.896718	18.592077	18.651020
444	30	2	0.060000	16.675576	18.303850	18.795107
445	30	2	0.060000	15.625150	17.089223	17.958930
446	30	7	0.030000	15.498077	17.840790	20.948667
447	30	7	0.030000	14.446730	16.625097	20.111756
448	30	7	0.030000	18.524242	12.803486	22.502521
449	30	7	0.030000	16.734240	12.832236	22.742393
450	30	7	0.030000	17.788385	14.051170	23.581534
451	31	1	-0.180000	11.045276	16.807183	9.463979
452	31	8	0.190000	10.094067	16.049955	10.376773
453	31	5	-0.330000	8.961524	16.863002	10.666715
454	31	3	0.510000	7.914395	16.431964	11.484475
455	31	4	-0.430000	7.939201	15.281657	12.004447
456	31	5	-0.330000	6.839463	17.292708	11.718278
457	31	6	0.160000	5.733531	16.932919	12.537596
458	31	2	0.060000	11.929434	16.175149	9.236371
459	31	2	0.060000	10.532853	17.066852	8.513462
460	31	2	0.060000	11.386577	17.739735	9.961320
461	31	7	0.030000	9.766212	15.115644	9.871327
462	31	7	0.030000	10.620685	15.789117	11.320455
463	31	7	0.030000	5.013921	17.776527	12.569847
464	31	7	0.030000	6.079932	16.715749	13.570268
465	31	7	0.030000	5.223185	16.040478	12.117281
466	32	1	-0.180000	4.623928	23.094235	20.346607
467	32	8	0.190000	5.864554	23.091720	21.225371
468	32	5	-0.330000	7.029764	23.100597	20.406851
469	32	3	0.510000	8.322264	23.100615	20.936424
470	32	4	-0.430000	8.502766	23.092577	22.186043
471	32	5	-0.330000	9.411998	23.109658	20.062685
472	32	6	0.160000	10.759714	23.110340	20.518181
473	32	2	0.060000	3.713777	23.087323	20.982677
474	32	2	0.060000	4.612139	24.003833	19.709441
475	32	2	0.060000	4.617237	22.193384	19.697062
476	32	7	0.030000	5.855486	23.993316	21.875711
477	32	7	0.030000	5.860589	22.181278	21.863321
478	32	7	0.030000	11.440590	23.118247	19.642454
479	32	7	0.030000	10.958247	22.198299	21.120125
480	32	7	0.030000	10.953128	24.015164	21.132552
481	33	1	-0.180000	14.945717	5.861340	17.147869
482	33	8	0.190000	15.881724	7.036513	17.380776
483	33	5	-0.330000	16.992416	6.614346	18.165572
484	33	3	0.510000	18.021929	7.480416	18.541112
485	33	4	-0.430000	18.000078	8.692664	18.188733
486	33	5	-0.330000	19.075926	6.985123	19.312343
487	33	6	0.160000	20.163044	7.798431	19.737221
488	33	2	0.060000	14.078612	6.188052	16.535990
489	33	2	0.060000	15.481464	5.050246	16.610663
490	33	2	0.060000	14.575453	5.472702	18.120160
491	33	7	0.030000	16.238813	7.421133	16.400748
492	33	7	0.030000	15.332008	7.843960	17.911571
493	33	7	0.030000	20.868055	7.182826	20.332657
494	33	7	0.030000	19.790168	8.631705	20.369824
495	33	7	0.030000	20.699387	8.207755	18.854975
496	34	1	-0.180000	19.352500	18.927695	3.017622
497	34	8	0.190000	17.847555	19.092046	3.157323
498	34	5	-0.330000	17.205998	17.844554	2.912504
499	34	3	0.510000	15.819349	17.686661	2.969763
500	34	4	-0.430000	15.073647	18.667189	3.246685
501	34	5	-0.330000	15.270173	16.427671	2.716043
502	34	6	0.160000	13.869693	16.180568	2.753631
503	34	2	0.060000	19.855164	19.899319	3.208102
504	34	2	0.060000	19.722228	18.180095	3.751028
505	34	2	0.060000	19.603239	18.586732	1.990802
506	34	7	0.030000	17.610371	19.440935	4.185876
507	34	7	0.030000	17.491277	19.847928	2.424105
508	34	7	0.030000	13.681429	15.112687	2.519665
509	34	7	0.030000	13.351873	16.810813	1.999826
510	34	7	0.030000	13.471284	16.402740	3.766290
511	35	1	-0.180000	9.822951	14.847668	16.971021
512	35	8	0.190000	8.523265	15.135334	16.236549
513	35	5	-0.330000	8.189769	14.028888	15.404487
514	35	3	0.510000	7.044026	14.005389	14.605909
515	35	4	-0.430000	6.249523	14.986644	14.596109
516	35	5	-0.330000	6.790547	12.879971	13.818379
517	35	6	0.160000	5.648045	12.774487	12.977320
518	35	2	0.060000	10.085217	15.709170	17.620665
519	35	2	0.060000	9.709366	13.940959	17.602263
520	35	2	0.060000	10.643262	14.683521	16.240520
521	35	7	0.030000	7.712602	15.305509	16.978011
522	35	7	0.030000	8.647319	16.048721	15.615072
523	35	7	0.030000	5.667663	11.795124	12.456729
524	35	7	0.030000	5.658044	13.585567	12.218625
525	35	7	0.030000	4.720837	12.840378	13.585196
526	36	1	-0.180000	9.413129	21.345601	2.872630
527	36	8	0.190000	8.064760	21.110057	3.534301
528	36	5	-0.330000	8.013220	19.785887	4.055535
529	36	3	0.510000	6.893688	19.281553	4.721343
530	36	4	-0.430000	5.868495	19.999926	4.885996
531	36	5	-0.330000	6.925477	17.970533	5.202216
532	36	6	0.160000	5.829584	17.379774	5.890575
533	36	2	0.060000	9.455812	22.377716	2.465293
534	36	2	0.060000	10.228195	21.216906	3.615996
535	36	2	0.060000	9.559389	20.623273	2.041765
536	36	7	0.030000	7.927088	21.843656	4.358183
537	36	7	0.030000	7.257695	21.249501	2.782570
538	36	7	0.030000	6.093183	16.339354	6.170924
539	36	7	0.030000	4.934145	17.359601	5.233801
540	36	7	0.030000	5.605319	17.955342	6.813610
541	37	1	-0.180000	2.986289	7.702907	21.468510
542	37	8	0.190000	3.027757	6.184516	21.532974
543	37	5	-0.330000	3.870186	5.685307	20.499112
544	37	3	0.510000	4.102022	4.321035	20.309333
545	37	4	-0.430000	3.559761	3.467621	21.065528
546	37	5	-0.330000	4.942789	3.915191	19.270380
547	37	6	0.160000	5.231796	2.547159	19.008117
548	37	2	0.060000	2.329867	8.094691	22.273881
549	37	2	0.060000	4.008303	8.116410	21.602647
550	37	2	0.060000	2.586176	8.030143	20.485499
551	37	7	0.030000	3.422127	5.869865	22.523614
552	37	7	0.030000	1.998752	5.783522	21.405485
553	37	7	0.030000	5.918318	2.479544	18.139400
554	37	7	0.030000	4.295358	1.999387	18.770211
555	37	7	0.030000	5.722521	2.085959	19.891321
556	38	1	-0.180000	5.313455	2.819246	3.390778
557	38	8	0.190000	5.413542	4.149018	2.660659
558	38	5	-0.330000	5.450926	5.212137	3.607310
559	38	3	0.510000	5.541904	6.553886	3.229903
560	38	4	-0.430000	5.595101	6.874160	2.009745
561	38	5	-0.330000	5.573140	7.535908	4.222718
562	38	6	0.160000	5.664676	8.924046	3.925212
563	38	2	0.060000	5.284142	1.988467	2.654602
564	38	2	0.060000	6.194054	2.683187	4.053743
565	38	2	0.060000	4.387500	2.791528	4.003416
566	38	7	0.030000	6.339431	4.161149	2.045449
567	38	7	0.030000	4.531292	4.269585	1.995079
568	38	7	0.030000	5.672835	9.500341	4.873036
569	38	7	0.030000	4.790173	9.241518	3.318562
570	38	7	0.030000	6.603128	9.132792	3.369064
571	39	1	-0.180000	20.478140	14.528693	22.533943
572	39	8	0.190000	20.882817	13.274943	23.292713
573	39	5	-0.330000	21.353330	12.292474	22.375576
574	39	3	0.510000	21.796158	11.032097	22.783445
575	39	4	-0.430000	21.793322	10.716572	24.005994
576	39	5	-0.330000	22.242150	10.126110	21.818404
577	39	6	0.160000	22.709218	8.823365	22.147825
578	39	2	0.060000	20.110801	15.296494	23.247070
579	39	2	0.060000	21.351427	14.936799	21.982301
580	39	2	0.060000	19.668893	14.290396	21.811571
581	39	7	0.030000	21.687006	13.528030	24.017370
582	39	7	0.030000	20.002996	12.881059	23.846490
583	39	7	0.030000	23.006023	8.296433	21.217877
584	39	7	0.030000	21.903073	8.245276	22.647337
585	39	7	0.030000	23.591568	8.893971	22.818676
586	40	1	-0.180000	3.048141	15.851497	13.621736
587	40	8	0.190000	3.404696	16.309886	15.026775
588	40	5	-0.330000	2.842335	17.595923	15.266830