EMC_1molecule.data - created by mBuild; units = real

15 atoms
14 bonds
23 angles
19 dihedrals
0 impropers

8 atom types
8 bond types
12 angle types
9 dihedral types

0.000000 22.300000 xlo xhi
0.000000 22.300000 ylo yhi
0.000000 22.300000 zlo zhi

Masses

1	12.010780	# opls_135
2	1.007947	# opls_140
3	12.010780	# opls_465
4	15.999430	# opls_466
5	15.999430	# opls_467
6	12.010780	# opls_468
7	1.007947	# opls_469
8	12.010780	# opls_490

Pair Coeffs # lj
#	epsilon (kcal/mol)		sigma (Angstrom)
1	0.06600		3.50000		# opls_135
2	0.03000		2.50000		# opls_140
3	0.10500		3.75000		# opls_465
4	0.21000		2.96000		# opls_466
5	0.17000		3.00000		# opls_467
6	0.06600		3.50000		# opls_468
7	0.01500		2.42000		# opls_469
8	0.06600		3.50000		# opls_490

Bond Coeffs # harmonic
#	k(kcal/mol/angstrom^2)		req(angstrom)
1	340.0		1.09		# opls_135	opls_140
2	268.0		1.529		# opls_135	opls_490
3	570.0		1.229		# opls_465	opls_466
4	214.0		1.327		# opls_465	opls_467
5	320.0		1.41		# opls_467	opls_468
6	320.0		1.41		# opls_467	opls_490
7	340.0		1.09		# opls_468	opls_469
8	340.0		1.09		# opls_469	opls_490

Angle Coeffs # harmonic
#	k(kcal/mol/rad^2)		theteq(deg)
1	33.0		107.80000	# opls_140	opls_135	opls_140
2	37.5		110.70000	# opls_140	opls_135	opls_490
3	83.0		123.40000	# opls_466	opls_465	opls_467
4	69.9		118.18000	# opls_467	opls_465	opls_467
5	83.0		116.90000	# opls_465	opls_467	opls_468
6	83.0		116.90000	# opls_465	opls_467	opls_490
7	35.0		109.50000	# opls_467	opls_468	opls_469
8	33.0		107.80000	# opls_469	opls_468	opls_469
9	50.0		109.50000	# opls_135	opls_490	opls_467
10	37.5		110.70000	# opls_135	opls_490	opls_469
11	35.0		109.50000	# opls_467	opls_490	opls_469
12	33.0		107.80000	# opls_469	opls_490	opls_469

Dihedral Coeffs # opls
#	f1(kcal/mol)	f2(kcal/mol)	f3(kcal/mol)	f4(kcal/mol)
1	0.00000	-0.00000		0.46800		-0.00000	# opls_140	opls_135	opls_490	opls_467
2	-0.00000	-0.00000		0.30000		-0.00000	# opls_140	opls_135	opls_490	opls_469
3	-0.00000	5.12400		-0.00000		-0.00000	# opls_466	opls_465	opls_467	opls_468
4	-0.00000	5.12400		-0.00000		-0.00000	# opls_466	opls_465	opls_467	opls_490
5	4.66900	5.12400		-0.00000		-0.00000	# opls_467	opls_465	opls_467	opls_468
6	4.66900	5.12400		-0.00000		-0.00000	# opls_467	opls_465	opls_467	opls_490
7	0.00000	-0.00000		0.19800		-0.00000	# opls_465	opls_467	opls_468	opls_469
8	-1.22000	-0.12600		0.42200		-0.00000	# opls_465	opls_467	opls_490	opls_135
9	0.00000	-0.00000		0.19800		-0.00000	# opls_465	opls_467	opls_490	opls_469

Atoms # full

1	1	1	-0.180000	2.941465	19.211685	3.477883
2	1	8	0.190000	2.650640	17.723989	3.361405
3	1	5	-0.330000	3.875031	16.996944	3.355028
4	1	3	0.510000	3.923627	15.604392	3.257863
5	1	4	-0.430000	2.859403	14.930591	3.170614
6	1	5	-0.330000	5.167312	14.968570	3.258684
7	1	6	0.160000	5.306076	13.555953	3.163431
8	1	2	0.060000	1.988075	19.780920	3.483071
9	1	2	0.060000	3.490378	19.418273	4.421019
10	1	2	0.060000	3.557133	19.546523	2.616303
11	1	7	0.030000	2.027749	17.403118	4.224509
12	1	7	0.030000	2.094563	17.531480	2.418209
13	1	7	0.030000	6.383592	13.293151	3.184615
14	1	7	0.030000	4.866069	13.193949	2.210061
15	1	7	0.030000	4.799072	13.065245	4.021172

Bonds

1	2	1	2
2	1	1	8
3	1	1	9
4	1	1	10
5	6	2	3
6	8	2	11
7	8	2	12
8	4	3	4
9	3	4	5
10	4	4	6
11	5	6	7
12	7	7	13
13	7	7	14
14	7	7	15

Angles

1	9	1	2	3
2	10	1	2	11
3	10	1	2	12
4	2	2	1	8
5	2	2	1	9
6	2	2	1	10
7	6	2	3	4
8	11	3	2	11
9	11	3	2	12
10	3	3	4	5
11	4	3	4	6
12	5	4	6	7
13	3	5	4	6
14	7	6	7	13
15	7	6	7	14
16	7	6	7	15
17	1	8	1	9
18	1	8	1	10
19	1	9	1	10
20	12	11	2	12
21	8	13	7	14
22	8	13	7	15
23	8	14	7	15

Dihedrals

1	8	1	2	3	4
2	4	2	3	4	5
3	6	2	3	4	6
4	1	3	2	1	8
5	1	3	2	1	9
6	1	3	2	1	10
7	5	3	4	6	7
8	9	4	3	2	11
9	9	4	3	2	12
10	7	4	6	7	13
11	7	4	6	7	14
12	7	4	6	7	15
13	3	5	4	6	7
14	2	8	1	2	11
15	2	8	1	2	12
16	2	9	1	2	11
17	2	9	1	2	12
18	2	10	1	2	11
19	2	10	1	2	12
